File written on  7Sep2011 at 14:07:50 

calc_only_A  :  F

begin real_lattice
   9.9485316   0.0000000   0.0000000
   0.0000000  13.9702784   0.0000000
   0.0000000   0.0000000  13.7586075
end real_lattice

begin recip_lattice
   0.6315691   0.0000000   0.0000000
   0.0000000   0.4497538   0.0000000
   0.0000000   0.0000000   0.4566731
end recip_lattice

begin kpoints
     1
    0.00000000    0.00000000    0.00000000
end kpoints

begin projections
    18
   0.49999    0.59771    0.51671    -2  1  1
    0.0000000  0.0000000  1.0000000   1.0000000  0.0000000  0.0000000    1.00
   0.49999    0.59771    0.51671    -2  2  1
    0.0000000  0.0000000  1.0000000   1.0000000  0.0000000  0.0000000    1.00
   0.49999    0.59771    0.51671    -2  3  1
    0.0000000  0.0000000  1.0000000   1.0000000  0.0000000  0.0000000    1.00
   0.50001    0.53459    0.59425    -2  1  1
    0.0000000  0.0000000  1.0000000   1.0000000  0.0000000  0.0000000    1.00
   0.50001    0.53459    0.59425    -2  2  1
    0.0000000  0.0000000  1.0000000   1.0000000  0.0000000  0.0000000    1.00
   0.50001    0.53459    0.59425    -2  3  1
    0.0000000  0.0000000  1.0000000   1.0000000  0.0000000  0.0000000    1.00
   0.49999    0.43691    0.57754    -2  1  1
    0.0000000  0.0000000  1.0000000   1.0000000  0.0000000  0.0000000    1.00
   0.49999    0.43691    0.57754    -2  2  1
    0.0000000  0.0000000  1.0000000   1.0000000  0.0000000  0.0000000    1.00
   0.49999    0.43691    0.57754    -2  3  1
    0.0000000  0.0000000  1.0000000   1.0000000  0.0000000  0.0000000    1.00
   0.50001    0.40229    0.48329    -2  1  1
    0.0000000  0.0000000  1.0000000   1.0000000  0.0000000  0.0000000    1.00
   0.50001    0.40229    0.48329    -2  2  1
    0.0000000  0.0000000  1.0000000   1.0000000  0.0000000  0.0000000    1.00
   0.50001    0.40229    0.48329    -2  3  1
    0.0000000  0.0000000  1.0000000   1.0000000  0.0000000  0.0000000    1.00
   0.49999    0.46541    0.40575    -2  1  1
    0.0000000  0.0000000  1.0000000   1.0000000  0.0000000  0.0000000    1.00
   0.49999    0.46541    0.40575    -2  2  1
    0.0000000  0.0000000  1.0000000   1.0000000  0.0000000  0.0000000    1.00
   0.49999    0.46541    0.40575    -2  3  1
    0.0000000  0.0000000  1.0000000   1.0000000  0.0000000  0.0000000    1.00
   0.50001    0.56310    0.42247    -2  1  1
    0.0000000  0.0000000  1.0000000   1.0000000  0.0000000  0.0000000    1.00
   0.50001    0.56310    0.42247    -2  2  1
    0.0000000  0.0000000  1.0000000   1.0000000  0.0000000  0.0000000    1.00
   0.50001    0.56310    0.42247    -2  3  1
    0.0000000  0.0000000  1.0000000   1.0000000  0.0000000  0.0000000    1.00
end projections

begin nnkpts
   3
     1     1      0   1   0
     1     1      0   0   1
     1     1      1   0   0
end nnkpts

begin exclude_bands
   0
end exclude_bands
