           6
Step:              24
O      0.31640403E+00  0.43733478E+00 -0.32547535E+00 -0.34444854E-04  0.20315435E-03  0.30128278E-03
H      0.17326600E+01  0.92177642E+00  0.85900665E+00  0.68242550E-03 -0.11691117E-02 -0.96521779E-03
H     -0.10078499E+01  0.17836481E+01 -0.61926821E+00  0.16664048E-03 -0.81048997E-03  0.41002981E-04
O     -0.83534207E+00 -0.45491177E+01 -0.10589433E+01 -0.84615621E-04  0.37393686E-04 -0.26271102E-03
H     -0.34853719E-01 -0.51528949E+01 -0.27088332E+01  0.10204293E-02 -0.82009226E-04  0.26009684E-03
H     -0.43591596E+00 -0.27408869E+01 -0.71542998E+00  0.20395192E-04 -0.17566960E-02  0.51854362E-04
