File written on 27Oct2011 at 10:35:52 

calc_only_A  :  F

begin real_lattice
   7.1968101   0.0000000   0.0000000
   0.0000000   7.1968101   0.0000000
   0.0000000   0.0000000   7.1968101
end real_lattice

begin recip_lattice
   0.8730514   0.0000000   0.0000000
   0.0000000   0.8730514   0.0000000
   0.0000000   0.0000000   0.8730514
end recip_lattice

begin kpoints
     1
    0.00000000    0.00000000    0.00000000
end kpoints

begin projections
     2
   0.50000    0.50000    0.49271     0  1  1
    0.0000000  0.0000000  1.0000000   1.0000000  0.0000000  0.0000000    1.00
   0.50000    0.50000    0.59553     0  1  1
    0.0000000  0.0000000  1.0000000   1.0000000  0.0000000  0.0000000    1.00
end projections

begin nnkpts
   3
     1     1      1   0   0
     1     1      0   1   0
     1     1      0   0   1
end nnkpts

begin exclude_bands
   0
end exclude_bands
