          38
Step:               9
LJ    -0.33390126E-02 -0.78468551E-01 -0.11018864E+00 -0.37868291E-04 -0.22862951E-05  0.19965038E-04
LJ    -0.32362618E-02 -0.55242606E-02  0.10056765E+01  0.23921901E-04 -0.31804048E-04 -0.40172771E-05
LJ     0.24763153E+00 -0.91322741E+00  0.47404539E+00 -0.22899713E-04  0.20381856E-05 -0.15259043E-04
LJ    -0.77519031E+00 -0.53849047E+00  0.47496066E+00 -0.41528760E-04 -0.23768433E-04  0.14690291E-04
LJ    -0.73533280E+00  0.53931711E+00  0.40889976E+00  0.15852993E-04 -0.23144397E-04  0.49545053E-05
LJ     0.30689828E+00  0.83894167E+00  0.39012391E+00 -0.82042180E-05 -0.21566125E-04  0.13135440E-04
LJ     0.91474266E+00 -0.52247223E-01  0.44423642E+00  0.99111582E-05  0.28222469E-04  0.23650839E-04
LJ    -0.81930094E+00 -0.10795895E+01 -0.44096100E+00 -0.61379090E-05  0.20314946E-04 -0.24819182E-04
LJ    -0.98116546E+00  0.11722168E-01 -0.54424203E+00 -0.34411174E-04  0.33553700E-05  0.11498902E-04
LJ    -0.28407326E+00  0.87312734E+00 -0.56078742E+00  0.48398439E-05  0.22632991E-04 -0.14204479E-04
LJ     0.76345983E+00  0.51202958E+00 -0.57542510E+00  0.45088474E-05 -0.12434183E-04  0.37719319E-04
LJ     0.12113169E+01 -0.49720424E+00 -0.47674855E+00  0.46526675E-05 -0.17815909E-04  0.20299943E-04
LJ    -0.31794897E-01 -0.45501663E-01 -0.11805277E+01 -0.36624975E-05  0.11062118E-04 -0.21011081E-05
LJ     0.69950894E-02  0.28051916E-01  0.21091468E+01  0.11300073E-04 -0.39333617E-05  0.16716215E-04
LJ     0.26801808E+00 -0.91324826E+00  0.15637416E+01  0.41869173E-04 -0.26719491E-05 -0.33928017E-05
LJ    -0.79138181E+00 -0.52774156E+00  0.15662319E+01  0.10667161E-04  0.28911377E-05  0.25000574E-04
LJ    -0.75140693E+00  0.59388741E+00  0.15159064E+01  0.17295289E-04 -0.48010332E-05 -0.80391777E-05
LJ     0.32907525E+00  0.90454719E+00  0.14959343E+01  0.23303667E-04 -0.48615629E-05 -0.41066392E-04
LJ     0.96011974E+00 -0.24886596E-01  0.15338588E+01  0.30771844E-04 -0.58774052E-04 -0.22040539E-04
LJ     0.12208447E+01 -0.96276379E+00  0.97145772E+00  0.20903509E-04  0.19077032E-06  0.13626586E-05
LJ     0.52371416E+00 -0.18427094E+01  0.96476435E+00 -0.26493403E-04  0.13862569E-04 -0.26795550E-04
LJ    -0.53263552E+00 -0.14670246E+01  0.10031214E+01  0.21221331E-04 -0.85979201E-05 -0.60491170E-06
LJ    -0.15801539E+01 -0.10748818E+01  0.98140861E+00 -0.15681245E-04  0.37890842E-04  0.17595088E-04
LJ    -0.15531308E+01  0.46231792E-01  0.96460282E+00 -0.70522419E-05 -0.16493556E-04 -0.93058192E-05
LJ    -0.14999044E+01  0.11612812E+01  0.92521716E+00 -0.17377761E-04  0.38169805E-04 -0.32435994E-05
LJ    -0.42959637E+00  0.14706747E+01  0.90355909E+00  0.52115972E-05  0.76538669E-05 -0.29307736E-04
LJ     0.64185403E+00  0.17765569E+01  0.88648800E+00  0.19953213E-04  0.16224477E-04  0.11804509E-04
LJ     0.12796489E+01  0.86136408E+00  0.91301835E+00 -0.16325685E-05  0.59157950E-04 -0.21873042E-04
LJ     0.18988485E+01 -0.75040382E-01  0.91858117E+00  0.26473383E-04  0.26496642E-04  0.45373474E-04
LJ     0.10159685E+01 -0.15009313E+01  0.12334525E-02 -0.53575175E-04 -0.21402408E-05  0.44737887E-05
LJ     0.25178239E+00 -0.99493740E+00 -0.64037273E+00 -0.14591531E-04 -0.22864300E-04 -0.20097958E-04
LJ    -0.10674425E+00 -0.18233591E+01  0.21283870E-01 -0.12128454E-04  0.12513603E-04  0.87318234E-05
LJ    -0.17566359E+01 -0.53562491E+00  0.14210158E-01 -0.64658448E-04 -0.20008750E-04 -0.71308489E-05
LJ    -0.17452615E+01  0.59139693E+00  0.47984295E-03 -0.86995424E-05  0.45991518E-04  0.16089700E-04
LJ    -0.10385530E+01  0.14843403E+01 -0.39247281E-01  0.18471808E-04 -0.48114741E-04 -0.20168134E-04
LJ     0.47095053E-01  0.17969129E+01 -0.58730811E-01  0.17265831E-04 -0.19240615E-04 -0.10599964E-04
LJ     0.11212422E+01  0.14146480E+01 -0.52042769E-01  0.39585289E-04  0.21580402E-05 -0.12985391E-04
LJ     0.17290718E+01  0.46642288E+00 -0.48721131E-01  0.86223546E-05 -0.55058297E-05  0.39908447E-05
 NOSE
          10          10           5           7  7.260000000000000E-004
 -9.684962935273454E-004  6.070941391213595E-003  2.469677626605533E-004
 -6.183224884382808E-003  6.894253797225237E-003 -3.226319764204959E-003
 -7.303055503754026E-003 -1.051082391961683E-002 -8.060345412322970E-004
 -4.851004219203040E-003
 -1.076361567674264E-004  6.780306129352400E-004  2.720825046695240E-005
 -6.870241796747010E-004  7.670178270912884E-004 -3.595224803956125E-004
 -8.175180195783014E-004 -1.167727768905486E-003 -8.600868212244994E-005
 -5.413371513557524E-004
