           3
Step:               0
O            5.857500        2.952181        2.533898       -0.000030        0.000054        0.000079
H            5.779175        2.030040        2.331594        0.000164       -0.000087       -0.000032
H            0.539471        2.942614        3.204920       -0.000135        0.000033       -0.000048
           3
Step:               1
O            5.857439        2.952291        2.534055       -0.000031        0.000056        0.000079
H            5.779501        2.029862        2.331527        0.000162       -0.000091       -0.000035
H            0.539201        2.942684        3.204825       -0.000134        0.000036       -0.000047
           3
Step:               2
O            5.857376        2.952403        2.534212       -0.000031        0.000056        0.000078
H            5.779822        2.029674        2.331453        0.000159       -0.000096       -0.000038
H            0.538934        2.942759        3.204733       -0.000133        0.000039       -0.000046
           3
Step:               3
O            5.857313        2.952517        2.534367       -0.000031        0.000057        0.000078
H            5.780138        2.029477        2.331374        0.000157       -0.000102       -0.000042
H            0.538668        2.942841        3.204643       -0.000132        0.000042       -0.000044
